% Model:              normal_decel_full_geometry.mph
% Version:            COMSOL 5.2.1.262
% Date:               Jun 25 2017, 15:20
% Dimension:          3
% Nodes:              2541
% Expressions:        3
% Description:        Electric field, x component, Electric field, y component, Electric field, z component
% Length unit:        mm
% x                       y                        z                        es.Ex (V/m)              es.Ey (V/m)              es.Ez (V/m)
0                         0                        -5.461                   212.69861851394853       -318581.1841736926       6.902248800536654
0.1                       0                        -5.461                   -399.05476509590517      -316389.6415367288       -3594.320942608698
0.2                       0                        -5.461                   416.6479921532118        -303811.2203381213       1417.7823571189074
0.30000000000000004       0                        -5.461                   1720.238952203681        -289411.7820065135       1863.219686513461
0.4                       0                        -5.461                   -1056.9268702111412      -265600.89993693924      2074.1913166035592
0.5                       0                        -5.461                   -83.10137000263694       -236825.0691943618       885.2515650013527
0.6000000000000001        0                        -5.461                   -734.9559161752895       -202053.0887784104       -395.700890768725
0.7000000000000001        0                        -5.461                   -1117.414377363627       -159928.09332154805      224.59326148503408
0.8                       0                        -5.461                   -255.08377310270726      -111138.9341746309       123.01552007509451
0.9000000000000001        0                        -5.461                   -934.3350653504065       -58683.456110701816      322.19925955366034
1                         0                        -5.461                   -1031.3372349070269      -3.367063012774038E-10   -0.06911520414782668
0                         0.1                      -5.461                   399.99265747097525       -318191.08624569554      199.77331798605155
0.1                       0.1                      -5.461                   5930.964147562423        -315380.57522602705      -32.91352418993483
0.2                       0.1                      -5.461                   11770.821366193897       -306693.3921726281       441.3178972468886
0.30000000000000004       0.1                      -5.461                   19804.602496402862       -288419.693471525        637.0102979574476
0.4                       0.1                      -5.461                   25060.37071493087        -266172.83947877534      -211.9004168239626
0.5                       0.1                      -5.461                   32500.33254356934        -236802.5814119286       1655.1648527064608
0.6000000000000001        0.1                      -5.461                   39111.98944027173        -201428.24438920323      742.5973961070558
0.7000000000000001        0.1                      -5.461                   44034.298522192534       -159547.50547866477      -294.2497565785916
0.8                       0.1                      -5.461                   49460.28552785472        -111872.4183433083       899.7278204181616
0.9000000000000001        0.1                      -5.461                   55465.35006150384        -58606.677286959275      396.1055548694585
1                         0.1                      -5.461                   61332.402864702264       -2.9167168639213365E-10  4.110199264965429
0                         0.2                      -5.461                   -685.904402079992        -317213.793933499        -377.20251814456424
0.1                       0.2                      -5.461                   12772.16961332102        -312621.6449518548       2125.6912344336743
0.2                       0.2                      -5.461                   25587.1514832752         -304048.95830901456      -233.5358702616213
0.30000000000000004       0.2                      -5.461                   39928.787134912505       -288208.84839428833      649.1847405392327
0.4                       0.2                      -5.461                   51732.48923258684        -264772.8502344653       -223.8657069455694
0.5                       0.2                      -5.461                   64828.40800513355        -235457.18739105554      246.02745650522593
0.6000000000000001        0.2                      -5.461                   73820.16137776349        -199071.72284347462      -2156.7351070620934
0.7000000000000001        0.2                      -5.461                   89872.36220624679        -158415.57415609498      -18.54106424569818
0.8                       0.2                      -5.461                   100752.60573329675       -110719.47951279767      -485.36277799872823
0.9000000000000001        0.2                      -5.461                   112394.63024226818       -59133.92827635803       6.879570661883918
1                         0.2                      -5.461                   119849.92925061651       -9.16248164284572E-11    8.031759202563688
0                         0.30000000000000004      -5.461                   424.2230880193529        -313632.45977169025      187.49317765492015
0.1                       0.30000000000000004      -5.461                   17583.066771415964       -314039.6533163651       -3402.4279247676022
0.2                       0.30000000000000004      -5.461                   38686.98680944626        -297899.64566984586      1218.0934048185227
0.30000000000000004       0.30000000000000004      -5.461                   58526.846003677114       -284296.0171910294       -593.7644449325744
0.4                       0.30000000000000004      -5.461                   78029.68825068256        -262890.6402873483       -657.4681650459133
0.5                       0.30000000000000004      -5.461                   96861.06825572992        -233771.6984151122       -760.0335262230947
0.6000000000000001        0.30000000000000004      -5.461                   115833.99529011862       -198842.81197199484      41.31036713091453
0.7000000000000001        0.30000000000000004      -5.461                   133476.90825061675       -158319.39789335613      -401.84297329036053
0.8                       0.30000000000000004      -5.461                   152904.9198593526        -113294.30299898499      -508.79408111407247
0.9000000000000001        0.30000000000000004      -5.461                   166686.38139177716       -57578.18631808831       377.9090452186647
1                         0.30000000000000004      -5.461                   181161.911442144         -1.6123681279109465E-10  1.51994060354153
0                         0.4                      -5.461                   194.07996248294512       -312014.00842696504      -113.71537378812809
0.1                       0.4                      -5.461                   24979.399763465117       -309086.68150208594      -16.410439479746856
0.2                       0.4                      -5.461                   52972.36601870973        -300328.7892873792       1481.659713568748
0.30000000000000004       0.4                      -5.461                   78424.64869510918        -282403.8554353892       996.1944433894823
0.4                       0.4                      -5.461                   103052.35825513426       -260659.3917941288       -168.3492463055445
0.5                       0.4                      -5.461                   129136.46840600471       -231671.53717904753      1974.4204322076184
0.6000000000000001        0.4                      -5.461                   153425.08611356607       -197211.4655011939       383.1514431638643
0.7000000000000001        0.4                      -5.461                   178572.39120459507       -155435.96235225783      -538.3379034854297
0.8                       0.4                      -5.461                   201413.04376255965       -108913.56083132801      -670.115507455208
0.9000000000000001        0.4                      -5.461                   222272.8289425735        -57685.38551744484       103.1046466637672
1                         0.4                      -5.461                   239423.45776546453       -7.570716000172588E-10   2.008752457714964
0                         0.5                      -5.461                   974.2508175687253        -306672.5244931918       176.90633699309547
0.1                       0.5                      -5.461                   33980.116209125845       -303256.5003192109       -1664.9123308833805
0.2                       0.5                      -5.461                   63896.55643147211        -294071.2710963887       450.0323302850593
0.30000000000000004       0.5                      -5.461                   96685.03370980074        -279016.0730529083       949.8644460526721
0.4                       0.5                      -5.461                   128707.97272446312       -256915.0249342667       916.8931914545246
0.5                       0.5                      -5.461                   160415.51794734632       -228970.8113555601       774.3440429115617
0.6000000000000001        0.5                      -5.461                   192196.80863936877       -194525.87702302003      -900.6138992732886
0.7000000000000001        0.5                      -5.461                   221809.80187334656       -154541.70368102798      560.0708328678738
0.8                       0.5                      -5.461                   250685.18461101502       -107934.88049930902      -216.03975613036891
0.9000000000000001        0.5                      -5.461                   277060.139541314         -57212.07450098649       -460.7353034578118
1                         0.5                      -5.461                   299462.7209844673        -6.528091654262536E-11   2.512479278955441
0                         0.6000000000000001       -5.461                   -987.6728153638542       -302284.1219014769       -948.4919747820823
0.1                       0.6000000000000001       -5.461                   38004.93509711267        -299543.4423648801       1813.3876122530492
0.2                       0.6000000000000001       -5.461                   77705.81874435686        -292113.10061389557      -635.2508123474618
0.30000000000000004       0.6000000000000001       -5.461                   115190.76587974024       -274525.34241732676      -435.63108628371265
0.4                       0.6000000000000001       -5.461                   152779.40112737357       -253833.73354362557      -835.6606692037749
0.5                       0.6000000000000001       -5.461                   191794.33319550258       -224618.27790196647      -1757.39945483068
0.6000000000000001        0.6000000000000001       -5.461                   228726.73294919182       -191463.9885591934       302.5279948766074
0.7000000000000001        0.6000000000000001       -5.461                   264812.20522708015       -152699.34937725365      -70.60518491767652
0.8                       0.6000000000000001       -5.461                   297248.05326847074       -105018.75453106902      333.630206623744
0.9000000000000001        0.6000000000000001       -5.461                   330095.0934874979        -55134.59235627351       -515.0585767942539
1                         0.6000000000000001       -5.461                   356290.387720532         -2.888032837040791E-10   2.989260947002662
0                         0.7000000000000001       -5.461                   -50.78903227765113       -297779.21870359464      726.0244955070375
0.1                       0.7000000000000001       -5.461                   45278.47486229637        -294779.70879366924      757.6459314256208
0.2                       0.7000000000000001       -5.461                   88512.0078547711         -285000.8824702918       220.67728568345774
0.30000000000000004       0.7000000000000001       -5.461                   133112.42339558492       -269809.315761499        598.9951367519097
0.4                       0.7000000000000001       -5.461                   178826.05421860638       -248943.74171804078      115.1678981196601
0.5                       0.7000000000000001       -5.461                   222683.07706145558       -220788.61799428635      -965.4429257249067
0.6000000000000001        0.7000000000000001       -5.461                   264046.54604669596       -187522.7223159345       -1421.414802640269
0.7000000000000001        0.7000000000000001       -5.461                   306802.95458775497       -149138.1213375245       12.836115315149073
0.8                       0.7000000000000001       -5.461                   346851.36378340237       -104409.24281610432      1430.2842762647342
0.9000000000000001        0.7000000000000001       -5.461                   383491.22270300135       -53927.847966713685      940.5580908761767
1                         0.7000000000000001       -5.461                   413118.0544565996        -1.1076864314213723E-10  3.4660426125405426
0                         0.8                      -5.461                   69.07610005047172        -291269.01663808787      -146.68349786615
0.1                       0.8                      -5.461                   49352.68526692968        -286376.6734889692       94.82193640328478
0.2                       0.8                      -5.461                   100877.4923009855        -279090.2933396688       -1649.533646788448
0.30000000000000004       0.8                      -5.461                   151871.31279390934       -263787.06518904393      799.280519493419
0.4                       0.8                      -5.461                   200986.7310747644        -242495.75844971277      -936.5056619154057
0.5                       0.8                      -5.461                   251676.2632477434        -215558.85762784415      1855.366868570767
0.6000000000000001        0.8                      -5.461                   301205.2618301915        -184009.4946340571       1305.7102537561295
0.7000000000000001        0.8                      -5.461                   347625.47840336524       -144935.5974898893       2734.581009069807
0.8                       0.8                      -5.461                   394513.72533437674       -101879.45810218205      -730.2028190088058
0.9000000000000001        0.8                      -5.461                   436599.74367740727       -54211.49090545361       408.11752680205973
1                         0.8                      -5.461                   467322.27637531346       -2.2109738665867632E-9   3.9208136874084127
0                         0.9000000000000001       -5.461                   988.2466963492334        -283369.8020905019       238.48781659197994
0.1                       0.9000000000000001       -5.461                   56983.12596305547        -281148.4371540542       -17.658694359241053
0.2                       0.9000000000000001       -5.461                   112802.47624992594       -272358.44604396384      216.18164886534214
0.30000000000000004       0.9000000000000001       -5.461                   169584.23316278146       -258313.98866460705      -232.93015650240704
0.4                       0.9000000000000001       -5.461                   225558.38479046          -237893.84888608498      -32.51782332221046
0.5                       0.9000000000000001       -5.461                   281374.7922612665        -211214.89480792568      -174.15357923146803
0.6000000000000001        0.9000000000000001       -5.461                   335720.1329824152        -179592.81588974906      -733.956988942984
0.7000000000000001        0.9000000000000001       -5.461                   389540.1384274906        -143812.32059776827      1333.4950509725604
0.8                       0.9000000000000001       -5.461                   439601.63812377723       -99081.77802107          1283.1261216572893
0.9000000000000001        0.9000000000000001       -5.461                   485821.0954499523        -53278.41443943221       -1414.5067343883566
1                         0.9000000000000001       -5.461                   522251.6730527466        6.888259751554013E-10    4.381668947537236
0                         1                        -5.461                   346.3804838069482        -276446.10124451004      -57.081196282524616
0.1                       1                        -5.461                   62205.036111314315       -273363.8798362161       -584.8586998158135
0.2                       1                        -5.461                   124374.16379184893       -264582.29896469123      -329.0825187587179
0.30000000000000004       1                        -5.461                   186802.75804715022       -249626.22296654922      -1349.8133744361694
0.4                       1                        -5.461                   248219.1920803588        -230701.58497788385      -694.9067767168162
0.5                       1                        -5.461                   309638.2230598527        -205287.42449348737      -2961.5202920965385
0.6000000000000001        1                        -5.461                   370271.154449414         -174270.93988214835      -868.6676327683963
0.7000000000000001        1                        -5.461                   428952.51050772634       -138165.1555343409       -656.8018493333366
0.8                       1                        -5.461                   484479.6384387593        -97273.61407719657       -31.897047971724533
0.9000000000000001        1                        -5.461                   534352.6706822717        -50294.55750122102       -203.82332312661447
1                         1                        -5.461                   577875.9272759827        7.512426388461858E-10    -2152.8361299427343
0                         0                        -5.187950000000001       1860.378170712298        -346251.2329668217       -490.8344807408321
0.1                       0                        -5.187950000000001       -227.62483742809854      -342683.1061913987       4.636146606857437
0.2                       0                        -5.187950000000001       1944.8939587206246       -333702.35077966953      -628.7358727754163
0.30000000000000004       0                        -5.187950000000001       561.806426471856         -317536.4665381332       152.92705929867225
0.4                       0                        -5.187950000000001       528.3079822673462        -292882.37384348415      -930.5302392596786
0.5                       0                        -5.187950000000001       -165.12001864569174      -264525.92031878437      763.8281419001287
0.6000000000000001        0                        -5.187950000000001       171.00164635749934       -226988.60714599653      1186.3726771513902
0.7000000000000001        0                        -5.187950000000001       -466.91699485816207      -183731.47478398797      1041.999591329166
0.8                       0                        -5.187950000000001       -55.18479136836095       -134160.92680326363      104.58080062806857
0.9000000000000001        0                        -5.187950000000001       -844.0843309535303       -78619.26982879396       792.3770169124
1                         0                        -5.187950000000001       -187.14180379192658      -15459.764849181534      -66.92752608436513
0                         0.1                      -5.187950000000001       -3835.0822156311333      -344743.7829514753       -22525.361322135846
0.1                       0.1                      -5.187950000000001       6216.073571980178        -341951.19614924624      -19818.007125851636
0.2                       0.1                      -5.187950000000001       13289.67280304081        -332704.15993912675      -20274.271905141395
0.30000000000000004       0.1                      -5.187950000000001       20075.22184833986        -316409.81589623727      -18933.396433900733
0.4                       0.1                      -5.187950000000001       26166.706885111904       -293456.35710587265      -18941.415438414337
0.5                       0.1                      -5.187950000000001       33551.64639260428        -263859.9081863269       -19399.65296561119
0.6000000000000001        0.1                      -5.187950000000001       37237.32446785543        -227292.96045761096      -18701.661303938847
0.7000000000000001        0.1                      -5.187950000000001       46116.94000228047        -184524.59121103512      -17682.06009683337
0.8                       0.1                      -5.187950000000001       52356.56023521228        -134196.45947076456      -16002.928985028204
0.9000000000000001        0.1                      -5.187950000000001       59436.45607502307        -79026.37771234653       -15125.670717211884
1                         0.1                      -5.187950000000001       65036.608497436886       -16553.189059270317      -12436.55036005435
0                         0.2                      -5.187950000000001       3257.0130005654937       -343138.3834752939       -43106.82062851271
0.1                       0.2                      -5.187950000000001       13666.056438107407       -340376.4382046271       -40471.18746762052
0.2                       0.2                      -5.187950000000001       27180.868241568118       -331379.8759296965       -41009.51758184974
0.30000000000000004       0.2                      -5.187950000000001       41283.79703131305        -313110.4558766041       -38680.714528255696
0.4                       0.2                      -5.187950000000001       51563.60029807023        -290911.6507661653       -40372.75418189919
0.5                       0.2                      -5.187950000000001       66776.1131444996         -262206.6646649131       -38784.551400056596
0.6000000000000001        0.2                      -5.187950000000001       79303.68641120676        -224361.4904217133       -38299.04638401092
0.7000000000000001        0.2                      -5.187950000000001       92512.27175192715        -182614.73496896034      -36381.52604137099
0.8                       0.2                      -5.187950000000001       105137.11692429986       -127926.53046751597      -33357.006180998105
0.9000000000000001        0.2                      -5.187950000000001       118085.67557268153       -76467.00052278185       -29592.68971957978
1                         0.2                      -5.187950000000001       131094.74647563742       -14908.941301110857      -24916.685863162686
0                         0.30000000000000004      -5.187950000000001       2386.6840243453626       -339683.69822894316      -62628.268870626634
0.1                       0.30000000000000004      -5.187950000000001       19141.12694744271        -337945.45041162975      -60956.32857425464
0.2                       0.30000000000000004      -5.187950000000001       38597.43694718811        -326628.8426358204       -58114.476828452556
0.30000000000000004       0.30000000000000004      -5.187950000000001       59270.85528665953        -313161.55643997603      -59795.185493480516
0.4                       0.30000000000000004      -5.187950000000001       78141.42879339424        -289755.2134447788       -59016.82211979898
0.5                       0.30000000000000004      -5.187950000000001       98845.23634328326        -259465.10593478984      -57155.346872140246
0.6000000000000001        0.30000000000000004      -5.187950000000001       119048.33955530572       -223736.5409648692       -56443.566777992004
0.7000000000000001        0.30000000000000004      -5.187950000000001       138195.52298641985       -182178.5569615838       -54191.03420595091
0.8                       0.30000000000000004      -5.187950000000001       156457.9301762809        -132840.54660517324      -49790.12955521369
0.9000000000000001        0.30000000000000004      -5.187950000000001       177731.15626850957       -78964.2298963803        -44473.880865382496
1                         0.30000000000000004      -5.187950000000001       195338.039539023         -15257.075514357994      -36541.40465393158
0                         0.4                      -5.187950000000001       627.9653093694942        -339482.99404217064      -80977.42393369979
0.1                       0.4                      -5.187950000000001       26093.429233513132       -335498.08057960804      -80787.79794605086
0.2                       0.4                      -5.187950000000001       53258.37034629396        -325224.32744108257      -79711.88580456085
0.30000000000000004       0.4                      -5.187950000000001       77204.38952025061        -307437.5034410492       -79148.38226411554
0.4                       0.4                      -5.187950000000001       107070.82147663174       -287509.14631993946      -78939.8447862321
0.5                       0.4                      -5.187950000000001       131636.21325783612       -257652.1127509958       -76828.36469500422
0.6000000000000001        0.4                      -5.187950000000001       157824.286354029         -221727.37378412928      -75358.96850160745
0.7000000000000001        0.4                      -5.187950000000001       183718.7550660591        -180005.83802659344      -72519.37642702559
0.8                       0.4                      -5.187950000000001       208105.66633723438       -128537.53792929108      -66461.78287639475
0.9000000000000001        0.4                      -5.187950000000001       235328.73753760557       -76654.51576333465       -60645.257689500315
1                         0.4                      -5.187950000000001       260885.59810566402       -14844.506839432666      -50034.00138301826
0                         0.5                      -5.187950000000001       25.143166600959376       -335102.0968728077       -99399.04608808499
0.1                       0.5                      -5.187950000000001       34225.17934343146        -332541.01531912014      -99491.55430455635
0.2                       0.5                      -5.187950000000001       64517.748172262036       -321725.6372446078       -100331.72900889184
0.30000000000000004       0.5                      -5.187950000000001       98072.12379423203        -305394.53988904326      -101281.7300169206
0.4                       0.5                      -5.187950000000001       131147.9814434813        -283108.1808720586       -98432.70918709793
0.5                       0.5                      -5.187950000000001       161354.54010880255       -254831.44672025088      -96524.79627721373
0.6000000000000001        0.5                      -5.187950000000001       197355.78700155637       -220165.61610148288      -94958.91567930282
0.7000000000000001        0.5                      -5.187950000000001       228355.6301634299        -177356.31053182238      -90970.28378790263
0.8                       0.5                      -5.187950000000001       261628.89424800707       -130312.86607788253      -83570.48995811248
0.9000000000000001        0.5                      -5.187950000000001       292737.88551645074       -75252.88510237377       -74903.90615293372
1                         0.5                      -5.187950000000001       325225.31581467297       -15870.349809903593      -62391.08530810333
0                         0.6000000000000001       -5.187950000000001       582.1774596301839        -327391.3419645452       -119471.29370978862
0.1                       0.6000000000000001       -5.187950000000001       39055.366063873545       -324942.7738069338       -118315.88811033683
0.2                       0.6000000000000001       -5.187950000000001       78050.44961638135        -316457.022227938        -118982.5320606326
0.30000000000000004       0.6000000000000001       -5.187950000000001       114702.95436172327       -302002.45862343605      -118365.25977460155
0.4                       0.6000000000000001       -5.187950000000001       156201.40698262607       -278814.1787715028       -117119.14998895231
0.5                       0.6000000000000001       -5.187950000000001       194966.8719472193        -250804.76947271277      -116336.56815907446
0.6000000000000001        0.6000000000000001       -5.187950000000001       233954.9393613648        -215990.92938040246      -112708.91885314428
0.7000000000000001        0.6000000000000001       -5.187950000000001       272732.21621390095       -175205.42133667786      -108606.1380117007
0.8                       0.6000000000000001       -5.187950000000001       311483.506462483         -128269.03614135845      -100476.58164599662
0.9000000000000001        0.6000000000000001       -5.187950000000001       350594.91479907953       -74350.13066083455       -89299.35379239678
1                         0.6000000000000001       -5.187950000000001       387982.65150612954       -15524.448399356459      -73738.34130169051
0                         0.7000000000000001       -5.187950000000001       -683.5633880798123       -324058.1543684995       -138330.998811426
0.1                       0.7000000000000001       -5.187950000000001       44479.27618716657        -320244.1713225732       -138809.11839329527
0.2                       0.7000000000000001       -5.187950000000001       90869.70936068706        -310627.3093350533       -138500.26099972473
0.30000000000000004       0.7000000000000001       -5.187950000000001       133944.49125216296       -294222.5757672528       -136169.13356691506
0.4                       0.7000000000000001       -5.187950000000001       180498.51304794886       -273687.5379473065       -135382.87867322203