% Model:              normal_decel_full_geometry.mph
% Version:            COMSOL 5.2.1.262
% Date:               Jun 25 2017, 20:25
% Dimension:          3
% Nodes:              2541
% Expressions:        3
% Description:        Electric field, x component, Electric field, y component, Electric field, z component
% Length unit:        mm
% x                       y                        z                        es.Ex (V/m)              es.Ey (V/m)              es.Ez (V/m)
0                         0                        -5.461                   1.141720173103454E7      9936.825365339639        -9374.62661933346
0.1                       0                        -5.461                   1.1435445657852665E7     4766.754259236157        -8566.174469469115
0.2                       0                        -5.461                   1.1522214833428673E7     464.2525451472029        7355.884174108505
0.30000000000000004       0                        -5.461                   1.1669717780112015E7     -71.56508809153456       -3904.107221032493
0.4                       0                        -5.461                   1.1873133476889621E7     1290.5766174457967       -1139.7893343856558
0.5                       0                        -5.461                   1.2157580533607088E7     530.6335819772212        -6203.371738155023
0.6000000000000001        0                        -5.461                   1.2509929086386563E7     -13272.073745310307      -18177.519983430393
0.7000000000000001        0                        -5.461                   1.2953154610044317E7     -1343.5291223239826      -402.3720517978072
0.8                       0                        -5.461                   1.3521927423167594E7     14421.944046476856       25181.88310431596
0.9000000000000001        0                        -5.461                   1.4208332468385026E7     -2128.244228133787       -16073.704560065642
1                         0                        -5.461                   1.5019763161381751E7     3.413393828362972E-8     1006.5514576924243
0                         0.1                      -5.461                   1.141207785922806E7      -883.0415881513618       639.5347811884712
0.1                       0.1                      -5.461                   1.1427300761730747E7     6789.6786058652215       3615.7963452804834
0.2                       0.1                      -5.461                   1.1514078419578362E7     2766.8501661119517       5286.370763690211
0.30000000000000004       0.1                      -5.461                   1.166609515079052E7      1928.1254411102273       -646.1392073745374
0.4                       0.1                      -5.461                   1.188289417767066E7      -669.0183688048273       1220.1467201076448
0.5                       0.1                      -5.461                   1.216336910343624E7      -2384.378124218434       -4010.102724271361
0.6000000000000001        0.1                      -5.461                   1.2514594731316172E7     5267.277793049812        4187.852726884186
0.7000000000000001        0.1                      -5.461                   1.2967670406262241E7     -8562.304339569062       16208.889865592122
0.8                       0.1                      -5.461                   1.3470165057882736E7     -22332.66308495775       -13308.682943470776
0.9000000000000001        0.1                      -5.461                   1.4211181567087602E7     9682.796893152254        -10993.513598648831
1                         0.1                      -5.461                   1.5019873208064795E7     2.5231229080337534E-8    1006.5588324467808
0                         0.2                      -5.461                   1.1415120408738226E7     -2429.5850847341353      4914.171576475725
0.1                       0.2                      -5.461                   1.143323997959635E7      -752.0572288539261       -2721.8071336541325
0.2                       0.2                      -5.461                   1.152357850261139E7      4332.0098443287425       6013.805622865446
0.30000000000000004       0.2                      -5.461                   1.167396111528486E7      5138.746854353696        4175.098683854565
0.4                       0.2                      -5.461                   1.1881609300628765E7     4110.06863733381         -3383.6476263569202
0.5                       0.2                      -5.461                   1.2158254576140435E7     3954.7971844952554       -1707.2889729528688
0.6000000000000001        0.2                      -5.461                   1.251191877797722E7      -5282.328657351434       -2811.747049640864
0.7000000000000001        0.2                      -5.461                   1.2960277360108433E7     2316.5128771287855       -3841.514806838706
0.8                       0.2                      -5.461                   1.3508194122786839E7     -4283.438146341592       9202.666975086555
0.9000000000000001        0.2                      -5.461                   1.4204440980815867E7     28146.061399464495       -3543.154467392713
1                         0.2                      -5.461                   1.5021494381137341E7     -4.4664075629890204E-9   1006.6674756427747
0                         0.30000000000000004      -5.461                   1.1416690479635572E7     1030.5571522851242       7617.223821737105
0.1                       0.30000000000000004      -5.461                   1.1425501573441861E7     -2703.24887783546        -3940.2072747889906
0.2                       0.30000000000000004      -5.461                   1.1518491612995546E7     7513.407039549449        11725.398346779868
0.30000000000000004       0.30000000000000004      -5.461                   1.16664603205535E7       7465.547599762678        -9762.940092124045
0.4                       0.30000000000000004      -5.461                   1.1875564433949335E7     9889.197859564796        -67.97693894989789
0.5                       0.30000000000000004      -5.461                   1.2149436719262697E7     2586.9058050932363       1269.5275840442628
0.6000000000000001        0.30000000000000004      -5.461                   1.2508636952065866E7     3795.224231169559        3746.38942857692
0.7000000000000001        0.30000000000000004      -5.461                   1.296034754273127E7      1978.4257999565452       -3555.788448512554
0.8                       0.30000000000000004      -5.461                   1.3504037044825422E7     67838.71995513141        46433.85384795815
0.9000000000000001        0.30000000000000004      -5.461                   1.4187048345667908E7     -17425.782758645713      -3631.025053501129
1                         0.30000000000000004      -5.461                   1.5025295539352179E7     -1.4891802580428892E-8   126.0615799244531
0                         0.4                      -5.461                   1.1416678517553942E7     5784.410928644822        5523.956863871812
0.1                       0.4                      -5.461                   1.1431878371564765E7     4545.317261693999        -1255.497279328294
0.2                       0.4                      -5.461                   1.1527364272054153E7     9467.219867975451        -10270.493009328842
0.30000000000000004       0.4                      -5.461                   1.1663256381719816E7     -37.62279768381268       -9761.530375462025
0.4                       0.4                      -5.461                   1.1864255546950951E7     -7170.632812565658       4110.091271596495
0.5                       0.4                      -5.461                   1.215018635837483E7      2737.250851424411        1270.7312745766249
0.6000000000000001        0.4                      -5.461                   1.250606820688542E7      -5193.397472448647       4945.891034647822
0.7000000000000001        0.4                      -5.461                   1.2973605543118987E7     -4087.3143378142267      -29279.233670935035
0.8                       0.4                      -5.461                   1.350894009348502E7      -3964.1508866362274      6593.603613253683
0.9000000000000001        0.4                      -5.461                   1.4190376524614558E7     -9811.559932326898       6466.136121822521
1                         0.4                      -5.461                   1.5021913884260178E7     -4.1146181747292076E-8   126.03320792672241
0                         0.5                      -5.461                   1.141102322352816E7      15044.555633924436       4307.05629753368
0.1                       0.5                      -5.461                   1.1423440481431888E7     -3275.051223360002       12255.677063891664
0.2                       0.5                      -5.461                   1.1529967189524254E7     3002.585810996592        -6037.773235037923
0.30000000000000004       0.5                      -5.461                   1.1659295850428335E7     5681.747867034748        80.26409647922264
0.4                       0.5                      -5.461                   1.1884780859708535E7     25569.83197979629        17807.6518798545
0.5                       0.5                      -5.461                   1.2146219926475655E7     4742.752714252099        5712.326179012191
0.6000000000000001        0.5                      -5.461                   1.251468441199214E7      4782.565534393303        -13443.514828718267
0.7000000000000001        0.5                      -5.461                   1.2953217674836606E7     3543.2800183296204       -5521.481159478426
0.8                       0.5                      -5.461                   1.3507001284764256E7     -1491.8006303403527      2710.4088163785636
0.9000000000000001        0.5                      -5.461                   1.4189942660415936E7     6427.514958374202        7448.859236711636
1                         0.5                      -5.461                   1.5035737842264071E7     2.980389697045821E-8     126.14919030290855
0                         0.6000000000000001       -5.461                   1.1420616294845005E7     8487.897851771675        -2410.996726757847
0.1                       0.6000000000000001       -5.461                   1.1435733408238823E7     2902.719977285422        5610.9963235858595
0.2                       0.6000000000000001       -5.461                   1.1522067312227113E7     3395.236519418657        -3350.869333826937
0.30000000000000004       0.6000000000000001       -5.461                   1.1685829871062465E7     175.35144945979118       -1161.325421395246
0.4                       0.6000000000000001       -5.461                   1.1876268789879654E7     6891.883222459815        16308.017250016797
0.5                       0.6000000000000001       -5.461                   1.214893638553641E7      5143.163064267486        6848.94520483166
0.6000000000000001        0.6000000000000001       -5.461                   1.2511733839357719E7     -2819.2724765255116      -14367.776761046145
0.7000000000000001        0.6000000000000001       -5.461                   1.295455035011885E7      -4194.077089935541       11693.78980793897
0.8                       0.6000000000000001       -5.461                   1.3499780672913179E7     -2410.9341628029943      -2008.3856102749705
0.9000000000000001        0.6000000000000001       -5.461                   1.4199219033818673E7     -19921.852393604815      7601.26315677166
1                         0.6000000000000001       -5.461                   1.5034367152800083E7     2.2378791354498506E-8    126.13769028412901
0                         0.7000000000000001       -5.461                   1.140753371969885E7      3322.142678610049        -1942.6176119532902
0.1                       0.7000000000000001       -5.461                   1.1443619768822342E7     4707.306575557217        -10439.430321076885
0.2                       0.7000000000000001       -5.461                   1.152044632809642E7      961.083030635491         -2902.535585595295
0.30000000000000004       0.7000000000000001       -5.461                   1.166065765854729E7      -415.09551244974136      700.7029893551953
0.4                       0.7000000000000001       -5.461                   1.187451491638848E7      -151.96478350833058      1728.6533822864294
0.5                       0.7000000000000001       -5.461                   1.2162121493541278E7     12310.611284237355       -21593.467964774463
0.6000000000000001        0.7000000000000001       -5.461                   1.2497909898989951E7     -11181.747290089726      7712.511743051931
0.7000000000000001        0.7000000000000001       -5.461                   1.2963190048517086E7     4010.7385307848454       3037.2566997930408
0.8                       0.7000000000000001       -5.461                   1.34859654049716E7       -16508.815583758056      -12963.619379479438
0.9000000000000001        0.7000000000000001       -5.461                   1.4190754430131096E7     -4083.087125979364       -7941.974528903142
1                         0.7000000000000001       -5.461                   1.503299646333623E7      -8.595286692174516E-9    126.1261901626134
0                         0.8                      -5.461                   1.1410490989535656E7     3857.4971759568434       -5140.202498815488
0.1                       0.8                      -5.461                   1.1422216115672773E7     -10350.596005861647      23046.991775153205
0.2                       0.8                      -5.461                   1.1526368198302645E7     8183.156499521574        -4508.506656462327
0.30000000000000004       0.8                      -5.461                   1.1664830365438333E7     2516.3127844308037       1121.4603347703815
0.4                       0.8                      -5.461                   1.1868402671108864E7     67.80286005465314        -11444.151854680851
0.5                       0.8                      -5.461                   1.2157118127248768E7     -10906.72340871673       -18387.51046201773
0.6000000000000001        0.8                      -5.461                   1.250057522402694E7      9517.474823193625        12673.004858315457
0.7000000000000001        0.8                      -5.461                   1.2957211944898166E7     -762.1085451859981       13946.08535951376
0.8                       0.8                      -5.461                   1.3503756485148238E7     9508.915693454444        -14478.278364492464
0.9000000000000001        0.8                      -5.461                   1.4181959072973266E7     16268.54789153859        -9343.883471548557
1                         0.8                      -5.461                   1.5067027063342422E7     -4.1765842710073795E-8   126.41170544501597
0                         0.9000000000000001       -5.461                   1.1414453290331472E7     5106.71262792917         -1491.9876655695261
0.1                       0.9000000000000001       -5.461                   1.1430088436534816E7     4814.692301238538        1825.3051284141839
0.2                       0.9000000000000001       -5.461                   1.152808495956853E7      3163.4663098757446       -515.113181817811
0.30000000000000004       0.9000000000000001       -5.461                   1.1663690236064233E7     5485.854069836438        2800.3742195144296
0.4                       0.9000000000000001       -5.461                   1.1885570782323714E7     6003.776857495308        533.7271837815642
0.5                       0.9000000000000001       -5.461                   1.2161889522068527E7     366.07026688940823       -7551.265686381608
0.6000000000000001        0.9000000000000001       -5.461                   1.2518513624262791E7     10002.517864665017       15947.826393321157
0.7000000000000001        0.9000000000000001       -5.461                   1.2942848515664192E7     8103.486289910972        1803.6591124404222
0.8                       0.9000000000000001       -5.461                   1.3517222831876565E7     -10808.214965000749      -30579.449160743505
0.9000000000000001        0.9000000000000001       -5.461                   1.4191581379799578E7     5009.737896159291        13731.818462491035
1                         0.9000000000000001       -5.461                   1.5068613958047956E7     -5.209790064068757E-8    126.4250193693963
0                         1                        -5.461                   1.1418664315909054E7     4160.648193851113        -11288.017896589823
0.1                       1                        -5.461                   1.143891109260712E7      5052.667714019306        -3507.3642918285914
0.2                       1                        -5.461                   1.152474132668744E7      5900.53751025768         -1733.4606405082159
0.30000000000000004       1                        -5.461                   1.1668460460199278E7     6164.882659768686        -1479.195069537498
0.4                       1                        -5.461                   1.1865003210791446E7     -635.7964283749461       5512.931285887957
0.5                       1                        -5.461                   1.2158230604426797E7     -11649.017266718205      33107.51300537493
0.6000000000000001        1                        -5.461                   1.2513368143176647E7     -5657.137187045068       33770.9492752105
0.7000000000000001        1                        -5.461                   1.2950795123970361E7     818.3231379184872        5907.589762948453
0.8                       1                        -5.461                   1.3505535327099944E7     4915.602464471012        -10389.022842779756
0.9000000000000001        1                        -5.461                   1.4194556022502564E7     -8445.672151811305       7437.9685944047815
1                         1                        -5.461                   1.5034628416289166E7     3.849020223135245E-8     25834.000919654965
0                         0                        -5.187950000000001       1.1195039320349969E7     5073.60964634933         -1067.2494006038178
0.1                       0                        -5.187950000000001       1.1243536396300785E7     8659.056817765348        -149831.8761882498
0.2                       0                        -5.187950000000001       1.1311254125261212E7     2608.8895463263325       -303321.60160541453
0.30000000000000004       0                        -5.187950000000001       1.1437472686105222E7     5589.813568342477        -458344.3766015568
0.4                       0                        -5.187950000000001       1.1628430821999982E7     1730.2065987926908       -634689.9582576752
0.5                       0                        -5.187950000000001       1.1866878434000075E7     3635.7067761626095       -819518.3135575801
0.6000000000000001        0                        -5.187950000000001       1.2188937516537093E7     2995.530981078744        -1033067.4737543091
0.7000000000000001        0                        -5.187950000000001       1.2578311002258142E7     -4332.343935795128       -1310188.6215689518
0.8                       0                        -5.187950000000001       1.3059187996419683E7     9660.924867358059        -1597884.8402049495
0.9000000000000001        0                        -5.187950000000001       1.3604368909278922E7     7593.3785455189645       -1946035.127128508
1                         0                        -5.187950000000001       1.4303234822654888E7     429.79790019989014       -2403164.925380023
0                         0.1                      -5.187950000000001       1.1201405340789607E7     4017.1607844096143       849.9476613376755
0.1                       0.1                      -5.187950000000001       1.1240421921099458E7     7809.26452969166         -149430.09345466085
0.2                       0.1                      -5.187950000000001       1.1308092862825288E7     1808.0596134259831       -295400.6713657016
0.30000000000000004       0.1                      -5.187950000000001       1.143933943511005E7      6380.725969838706        -453499.47301333875
0.4                       0.1                      -5.187950000000001       1.1623563461414797E7     4478.263564240187        -630012.1874848325
0.5                       0.1                      -5.187950000000001       1.1864199954799803E7     6824.89276765706         -822679.7215467242
0.6000000000000001        0.1                      -5.187950000000001       1.2180582332903795E7     -7625.507774870843       -1040647.76710692
0.7000000000000001        0.1                      -5.187950000000001       1.2570558688840184E7     -3028.2011623084545      -1301498.4648282845
0.8                       0.1                      -5.187950000000001       1.3052747162023872E7     -2566.0520681515336      -1599198.2584913874
0.9000000000000001        0.1                      -5.187950000000001       1.3597224872654138E7     7013.6074092537165       -1951914.5059531226
1                         0.1                      -5.187950000000001       1.4299840750972014E7     -2054.140533158323       -2396199.6320032133
0                         0.2                      -5.187950000000001       1.1205343437677603E7     995.4740841440507        6443.626529528759
0.1                       0.2                      -5.187950000000001       1.1239968768551162E7     -4739.206536923535       -145159.56978069618
0.2                       0.2                      -5.187950000000001       1.1297137841125371E7     2608.023933634162        -295727.7884728145
0.30000000000000004       0.2                      -5.187950000000001       1.1441430156079292E7     2159.3144116586773       -452393.70046710037
0.4                       0.2                      -5.187950000000001       1.1632598149950467E7     2960.9733875971287       -639440.9534512088
0.5                       0.2                      -5.187950000000001       1.1877606597898874E7     1555.5372290946543       -823891.2432658486
0.6000000000000001        0.2                      -5.187950000000001       1.2173548296692094E7     -3238.057750225067       -1043286.0439497586
0.7000000000000001        0.2                      -5.187950000000001       1.2591792408990208E7     27146.06025147438        -1288030.66688798
0.8                       0.2                      -5.187950000000001       1.3052341416277543E7     215.33233667710118       -1598470.2117251614
0.9000000000000001        0.2                      -5.187950000000001       1.3634108928648353E7     7519.968525573611        -1977284.0248481445
1                         0.2                      -5.187950000000001       1.4309999214635799E7     -1214.4120205153824      -2420986.5767836156
0                         0.30000000000000004      -5.187950000000001       1.1199676983190108E7     -1708.352552736178       5748.650279631838
0.1                       0.30000000000000004      -5.187950000000001       1.1233785808606295E7     1140.2689220639877       -139625.40423019603
0.2                       0.30000000000000004      -5.187950000000001       1.130619578368555E7      2040.0562714971602       -297139.01191336254
0.30000000000000004       0.30000000000000004      -5.187950000000001       1.1431088481720658E7     3709.112378783466        -457843.2603633688
0.4                       0.30000000000000004      -5.187950000000001       1.1633712782133285E7     -1247.1731803640723      -632804.397006005
0.5                       0.30000000000000004      -5.187950000000001       1.1872047401081435E7     4229.44532226678         -825031.6195793375
0.6000000000000001        0.30000000000000004      -5.187950000000001       1.2186593209689956E7     1719.9105281308293       -1035445.8885855488
0.7000000000000001        0.30000000000000004      -5.187950000000001       1.2572870050589964E7     4650.248167872429        -1296697.4193551168
0.8                       0.30000000000000004      -5.187950000000001       1.3049627825447029E7     812.6985647538677        -1599155.2815512456
0.9000000000000001        0.30000000000000004      -5.187950000000001       1.360862905072825E7      -377.2144485525787       -1954466.3073829152
1                         0.30000000000000004      -5.187950000000001       1.4307400426001228E7     -1143.7290765400976      -2395252.4466112545
0                         0.4                      -5.187950000000001       1.1214151910330769E7     2081.3757267385663       -8896.859232268296
0.1                       0.4                      -5.187950000000001       1.1230298123381626E7     232.23756776703522       -135970.35941544338
0.2                       0.4                      -5.187950000000001       1.13000792523795E7       3057.2440138063394       -294849.6175475139
0.30000000000000004       0.4                      -5.187950000000001       1.1427058924344886E7     935.2619642938807        -459178.0318385055
0.4                       0.4                      -5.187950000000001       1.1637916671472508E7     170.0940135391429        -635922.0197473159
0.5                       0.4                      -5.187950000000001       1.1861687488212654E7     6277.205871492624        -824331.0238281256
0.6000000000000001        0.4                      -5.187950000000001       1.217422192067584E7      3378.9830809235573       -1038097.6832215376
0.7000000000000001        0.4                      -5.187950000000001       1.2568598740778722E7     6548.864583101124        -1302639.310361199
0.8                       0.4                      -5.187950000000001       1.3047150029198326E7     -5562.159105360508       -1604230.3743538707
0.9000000000000001        0.4                      -5.187950000000001       1.360831333515568E7      3538.6268797842786       -1956391.0338412188
1                         0.4                      -5.187950000000001       1.4298864917040631E7     -4945.524306088686       -2399542.281521678
0                         0.5                      -5.187950000000001       1.1192503148471177E7     8641.938970880117        1907.6620703451626
0.1                       0.5                      -5.187950000000001       1.1234625087190744E7     10622.338829923421       -133890.2215626901
0.2                       0.5                      -5.187950000000001       1.1309702157437399E7     6674.980289796673        -298639.87900023005
0.30000000000000004       0.5                      -5.187950000000001       1.143206586352026E7      5750.929560648277        -460036.595240082
0.4                       0.5                      -5.187950000000001       1.1624551196778527E7     3751.2770307627507       -630718.3845336
0.5                       0.5                      -5.187950000000001       1.1876897353861324E7     -16628.42174469307       -819189.5240879357
0.6000000000000001        0.5                      -5.187950000000001       1.2190689738258969E7     -700.8600494777784       -1069130.179049939
0.7000000000000001        0.5                      -5.187950000000001       1.2589991542948926E7     10482.311708324589       -1285665.717605466
0.8                       0.5                      -5.187950000000001       1.3043203583564375E7     607.0641045095399        -1596631.4212964475
0.9000000000000001        0.5                      -5.187950000000001       1.3625274111548528E7     3761.4001317378134       -1966784.1740046442
1                         0.5                      -5.187950000000001       1.4292439782637015E7     9136.639241695404        -2401589.1964999586
0                         0.6000000000000001       -5.187950000000001       1.1201072535126042E7     2858.635719482787        10283.206662490898
0.1                       0.6000000000000001       -5.187950000000001       1.1235006847473342E7     -186.56201652658638      -151222.13666389853
0.2                       0.6000000000000001       -5.187950000000001       1.1311543160688724E7     4205.069653360755        -304905.46408429975
0.30000000000000004       0.6000000000000001       -5.187950000000001       1.1424108477402743E7     671.2700862288475        -459643.3876045495
0.4                       0.6000000000000001       -5.187950000000001       1.1627229365073767E7     3843.8552238866687       -624808.2264982932
0.5                       0.6000000000000001       -5.187950000000001       1.1870696476387087E7     2420.5892059728503       -823148.9282686035
0.6000000000000001        0.6000000000000001       -5.187950000000001       1.2183721357045066E7     3086.095901247114        -1046619.5288879946
0.7000000000000001        0.6000000000000001       -5.187950000000001       1.2585198595265567E7     4287.62982276082         -1275350.7856221497
0.8                       0.6000000000000001       -5.187950000000001       1.304119114141019E7      6857.093388962559        -1591629.9997724043
0.9000000000000001        0.6000000000000001       -5.187950000000001       1.3620800712377664E7     16248.52515116334        -1959465.92139519
1                         0.6000000000000001       -5.187950000000001       1.4290459577135524E7     -245.01848319836427      -2406118.371877391
0                         0.7000000000000001       -5.187950000000001       1.1196893008142292E7     4569.667326831026        -603.1969234277494
0.1                       0.7000000000000001       -5.187950000000001       1.1237835828209365E7     6865.371791454032        -144034.65101785772
0.2                       0.7000000000000001       -5.187950000000001       1.130503028676213E7      2105.223781629           -297827.94434258714
0.30000000000000004       0.7000000000000001       -5.187950000000001       1.1428515258022353E7     3324.1725549823605       -460241.77191351354
0.4                       0.7000000000000001       -5.187950000000001       1.162694921248201E7      2251.547209762968        -627937.415694165